 &FCI NORB=  12,NELEC=14,MS2=0,
  ORBSYM=1,1,1,1,1,1,1,1,1,1,1,1,
  ISYM=1,
 &END
0.2650838247620258 1 1 1 1
-0.002042950831615124 2 1 1 1
0.03377499595656065 2 1 2 1
0.2253950599472364 2 2 1 1
0.0038206390708063584 2 2 2 1
0.2078499422792146 2 2 2 2
4.8452036605671656e-05 3 1 1 1
-0.002751629932759623 3 1 2 1
-0.0013701683510294472 3 1 2 2
0.006766379030574333 3 1 3 1
-0.019331968835554478 3 2 1 1
-0.0006114075355473043 3 2 2 1
-0.012924869113733166 3 2 2 2
-5.431944567585593e-06 3 2 3 1
0.008129757517404062 3 2 3 2
0.29400434034902356 3 3 1 1
-0.0019198544629890472 3 3 2 1
0.24271655925025348 3 3 2 2
-0.0004382236510185222 3 3 3 1
-0.03064677905172206 3 3 3 2
0.4112871124345856 3 3 3 3
-0.001161759803683618 4 1 1 1
0.00012322630113011248 4 1 2 1
-0.0007651775056917586 4 1 2 2
-0.00010875681888892606 4 1 3 1
0.00035610056798883395 4 1 3 2
-0.0016523890344401502 4 1 3 3
0.0060335875266581945 4 1 4 1
-0.0012431105201379934 4 2 1 1
-0.001128335438884339 4 2 2 1
-0.001044516280918264 4 2 2 2
0.0021495804839358466 4 2 3 1
-9.791810281354927e-05 4 2 3 2
-0.000968656563743303 4 2 3 3
-0.002303453295543325 4 2 4 1
0.05498575618255238 4 2 4 2
-0.00028036593194827737 4 3 1 1
2.0493140376243492e-05 4 3 2 1
-0.00023318870882763608 4 3 2 2
0.0004188318913669832 4 3 3 1
-6.365492284072033e-05 4 3 3 2
-0.0002247435706856405 4 3 3 3
-0.00038839490788116025 4 3 4 1
0.00926991906208817 4 3 4 2
0.014002360082167504 4 3 4 3
0.30343661040193487 4 4 1 1
-0.0026532386884502196 4 4 2 1
0.2515072601502102 4 4 2 2
-0.0005790343111314877 4 4 3 1
-0.029129414549455317 4 4 3 2
0.41387249399443476 4 4 3 3
-0.002019634305548918 4 4 4 1
-0.001209843408536589 4 4 4 2
-0.0002537093040145726 4 4 4 3
0.4670854691317644 4 4 4 4
-0.00035925471303020697 5 1 1 1
-0.0001277218116550277 5 1 2 1
-0.00016955707801087478 5 1 2 2
0.0008988743884346578 5 1 3 1
-9.010554828732371e-05 5 1 3 2
8.559740146435498e-05 5 1 3 3
-0.0009980397111433816 5 1 4 1
0.023034343422485906 5 1 4 2
0.0021505142314783092 5 1 4 3
3.2336374053695885e-05 5 1 4 4
0.016016816617380324 5 1 5 1
-0.0005008398041017422 5 2 1 1
0.00011129267038203648 5 2 2 1
-0.00019371678335625722 5 2 2 2
-1.906982687885761e-05 5 2 3 1
0.00014567028494979665 5 2 3 2
-0.001427480282325031 5 2 3 3
0.0014868859020881764 5 2 4 1
0.0007663647234771134 5 2 4 2
0.00016845327595806184 5 2 4 3
-0.0016087873881322468 5 2 4 4
0.00013302773319624251 5 2 5 1
0.0037036211353041856 5 2 5 2
1.1064734752490698e-05 5 3 1 1
2.5874356311906436e-05 5 3 2 1
-0.00010521956318506607 5 3 2 2
-5.724966155026741e-05 5 3 3 1
-5.796801390439221e-06 5 3 3 2
-0.00028195348026992923 5 3 3 3
0.0001684136268856644 5 3 4 1
-0.0004915304921968635 5 3 4 2
-0.0001283747759105925 5 3 4 3
-0.0004627396728154867 5 3 4 4
-0.00035605951582660527 5 3 5 1
0.00012020722553667837 5 3 5 2
0.006567901402092648 5 3 5 3
-0.0002406388892923796 5 4 1 1
0.00018067437525761613 5 4 2 1
0.0007813290418441835 5 4 2 2
0.002296700046392526 5 4 3 1
-0.00010177409569906879 5 4 3 2
0.00015078765437319543 5 4 3 3
1.6382881050014765e-05 5 4 4 1
-0.000416087213448692 5 4 4 2
-2.1668320199300014e-05 5 4 4 3
0.00020570698010206315 5 4 4 4
-0.0002912432013602578 5 4 5 1
-4.0496227067033145e-06 5 4 5 2
-2.262362889940099e-05 5 4 5 3
0.01194737868695143 5 4 5 4
0.27763313758895425 5 5 1 1
-0.0019246142190729205 5 5 2 1
0.23144430839788688 5 5 2 2
-0.0003658965232784945 5 5 3 1
-0.026732467085467757 5 5 3 2
0.3699616449246758 5 5 3 3
-0.0013677825846274499 5 5 4 1
-0.0008172001632130272 5 5 4 2
-0.00012073876655461027 5 5 4 3
0.38246971290597703 5 5 4 4
7.451406698595381e-05 5 5 5 1
-0.0013799633177483356 5 5 5 2
-0.0002681461395475592 5 5 5 3
0.0001989488368520261 5 5 5 4
0.3556998263143135 5 5 5 5
1.834009484612844e-05 6 1 1 1
-0.00010962841639739973 6 1 2 1
-0.0002686128213525713 6 1 2 2
3.387977108551617e-05 6 1 3 1
-5.2000786850693926e-05 6 1 3 2
0.0011910122158264177 6 1 3 3
-2.9923364497708266e-05 6 1 4 1
0.0016646607378945594 6 1 4 2
0.00014758648965140997 6 1 4 3
0.001136138240942543 6 1 4 4
0.0009035809868571651 6 1 5 1
-0.00010345604799331686 6 1 5 2
0.0007451215261165489 6 1 5 3
-1.2500100397319146e-05 6 1 5 4
0.0010650007266946556 6 1 5 5
0.003109265394774852 6 1 6 1
0.0002947041127560528 6 2 1 1
-0.0007444847348378823 6 2 2 1
6.603752229039167e-06 6 2 2 2
-0.00022042262085216217 6 2 3 1
-5.141687287788306e-05 6 2 3 2
0.00044165219534779155 6 2 3 3
0.0003550410382669964 6 2 4 1
-0.006112920989020375 6 2 4 2
0.0022921882924567083 6 2 4 3
0.0005851673784648386 6 2 4 4
-0.004266988259471665 6 2 5 1
-1.776762071927747e-05 6 2 5 2
0.00012216944073364968 6 2 5 3
0.0002488043314667672 6 2 5 4
0.0004209855898194849 6 2 5 5
-0.0003208026883020276 6 2 6 1
0.005063092264305031 6 2 6 2
-0.0008601441375154451 6 3 1 1
-0.0009293585922804611 6 3 2 1
-0.0006431710342078266 6 3 2 2
0.0021149300691283043 6 3 3 1
-0.00016174490297374148 6 3 3 2
-0.00015343749987237787 6 3 3 3
-0.0018623310560873206 6 3 4 1
0.045339479777589335 6 3 4 2
0.010535058703087227 6 3 4 3
-0.0001795790913183094 6 3 4 4
0.02385271447485041 6 3 5 1
0.0006213051406334052 6 3 5 2
-0.0006907184482980554 6 3 5 3
-0.0001155632511089882 6 3 5 4
-6.948889499799643e-05 6 3 5 5
0.0016995389401742128 6 3 6 1
-0.007109635729018818 6 3 6 2
0.06037489161528575 6 3 6 3
0.0027176097847850284 6 4 1 1
7.160106324418185e-06 6 4 2 1
0.0005757701806099993 6 4 2 2
-7.935683548236797e-05 6 4 3 1
0.003187534482083268 6 4 3 2
0.005295071719636285 6 4 3 3
9.099111444883066e-05 6 4 4 1
0.00048590362003500916 6 4 4 2
9.543051157841982e-05 6 4 4 3
0.005778496930014346 6 4 4 4
0.0002252318792580832 6 4 5 1
0.0001230105315274924 6 4 5 2
5.562197329878918e-06 6 4 5 3
3.0830654151456445e-06 6 4 5 4
0.0024501325655765134 6 4 5 5
8.651653642864115e-05 6 4 6 1
-4.9044167176028066e-05 6 4 6 2
0.00047574066547216646 6 4 6 3
0.012305617581659045 6 4 6 4
-3.775605467686589e-05 6 5 1 1
0.0034185427408052046 6 5 2 1
-0.0005394101853876304 6 5 2 2
0.001245578156520983 6 5 3 1
-5.3093345128020944e-05 6 5 3 2
3.0295165887564892e-05 6 5 3 3
-0.00012530841516582584 6 5 4 1
0.0032151572123517683 6 5 4 2
0.0006358019742279642 6 5 4 3
-9.841243395560526e-05 6 5 4 4
0.0016253885064151628 6 5 5 1
5.279181045106126e-05 6 5 5 2
-5.983428703296757e-05 6 5 5 3
0.00037227125092231046 6 5 5 4
-0.00010450778867610996 6 5 5 5
0.0001242938873128781 6 5 6 1
-0.0005398115240937005 6 5 6 2
0.0032578273298956065 6 5 6 3
1.4368931032617201e-05 6 5 6 4
0.009736807143905712 6 5 6 5
0.2811428727231359 6 6 1 1
-0.002350921883846975 6 6 2 1
0.23051558889523402 6 6 2 2
-7.740356461019637e-05 6 6 3 1
-0.0247059130947923 6 6 3 2
0.37468606507535374 6 6 3 3
-0.0015479070064228645 6 6 4 1
-0.00039894853899841414 6 6 4 2
-3.933764480954795e-05 6 6 4 3
0.3952851590348052 6 6 4 4
0.0002516056685266848 6 6 5 1
-0.0015927363219656152 6 6 5 2
0.00010713068633862723 6 6 5 3
0.00016657600879128257 6 6 5 4
0.3491029454467614 6 6 5 5
0.0014501180932686786 6 6 6 1
0.0004836260642179827 6 6 6 2
0.00041067226228283196 6 6 6 3
0.004870781605093553 6 6 6 4
-8.159634190970126e-05 6 6 6 5
0.3823492407148108 6 6 6 6
-0.0016258159570657535 7 1 1 1
0.018036218799972064 7 1 2 1
0.003203066532491425 7 1 2 2
-0.0018697419204688223 7 1 3 1
-0.000368833164162284 7 1 3 2
0.0006443594607956784 7 1 3 3
0.00011767294366950921 7 1 4 1
0.0003360678949996466 7 1 4 2
-0.00015098658161344955 7 1 4 3
0.0010906723791779718 7 1 4 4
0.0004947392034480361 7 1 5 1
5.751670277058845e-05 7 1 5 2
1.9555138456107228e-05 7 1 5 3
-0.0010685088073011273 7 1 5 4
0.000680926081858069 7 1 5 5
3.928242833202979e-05 7 1 6 1
-0.0006686974094311025 7 1 6 2
0.0003380405597474991 7 1 6 3
-3.290067234931625e-05 7 1 6 4
-0.0022075519229912736 7 1 6 5
0.0006588191171030518 7 1 6 6
0.01809452506833626 7 1 7 1
-0.020396017109980402 7 2 1 1
0.0030311824480629764 7 2 2 1
-0.010194011935704144 7 2 2 2
-0.00032515814193710907 7 2 3 1
0.004143549149809265 7 2 3 2
-0.062098788363456205 7 2 3 3
0.00040550962731765596 7 2 4 1
0.00040886172071122686 7 2 4 2
0.00012706268166074103 7 2 4 3
-0.08114201521421452 7 2 4 4
5.680474298764144e-05 7 2 5 1
0.000689883147563021 7 2 5 2
0.0001451162267370532 7 2 5 3
0.00011210037147033355 7 2 5 4
-0.05459330406476177 7 2 5 5
-0.0007691380371696033 7 2 6 1
-0.00023895643779307335 7 2 6 2
0.0001012176346217031 7 2 6 3
-0.0018187383020255071 7 2 6 4
-1.539110291101865e-05 7 2 6 5
-0.06354117235007926 7 2 6 6
0.00041556841805090526 7 2 7 1
0.03518308634797801 7 2 7 2
0.007434899933346931 7 3 1 1
-0.0003882280330408376 7 3 2 1
0.005638567508982044 7 3 2 2
5.0946520193952675e-05 7 3 3 1
-0.005363800905684652 7 3 3 2
0.018529536889948295 7 3 3 3
-0.0002858082683433825 7 3 4 1
0.0008247205803094421 7 3 4 2
0.00016176223160730617 7 3 4 3
0.020159132822311743 7 3 4 4
0.00043147269524257257 7 3 5 1
-0.00018198654884670835 7 3 5 2
-8.322748757239748e-05 7 3 5 3
9.921465081990073e-05 7 3 5 4
0.01650571732021028 7 3 5 5
0.00010831452268972953 7 3 6 1
-6.407661478685794e-05 7 3 6 2
0.0009194691597417159 7 3 6 3
-0.0065045645160291005 7 3 6 4
0.00010049967169144025 7 3 6 5
0.01237901582622107 7 3 6 6
5.9239745417552946e-05 7 3 7 1
-0.00767375520948054 7 3 7 2
0.01088040685602841 7 3 7 3
0.0011960798655339705 7 4 1 1
0.00146978893661784 7 4 2 1
0.0009808850513942087 7 4 2 2
-0.0033566903932117087 7 4 3 1
0.0003685738184291663 7 4 3 2
-0.00016641250690620487 7 4 3 3
0.0036013479507698066 7 4 4 1
-0.08809701028661708 7 4 4 2
-0.01796527732300692 7 4 4 3
-0.0002137654966201115 7 4 4 4
-0.03687980530684342 7 4 5 1
-0.0007961797733614905 7 4 5 2
0.0009613042337271974 7 4 5 3
0.000558229809583371 7 4 5 4
-0.00025907245323060555 7 4 5 5
-0.002748914904554234 7 4 6 1
0.008723539487355747 7 4 6 2
-0.07492278484881087 7 4 6 3
-0.0007754018875181452 7 4 6 4
-0.005273275216011225 7 4 6 5
-0.0010728695331244085 7 4 6 6
-0.0007789739301156724 7 4 7 1
-2.965351874826416e-05 7 4 7 2
-0.0015837384715581704 7 4 7 3
0.14796043561289612 7 4 7 4
0.00014503670904386065 7 5 1 1
0.00012461902353581107 7 5 2 1
0.0003057845889562423 7 5 2 2
4.40938628087931e-05 7 5 3 1
-8.485157666858607e-05 7 5 3 2
0.0002076282366820673 7 5 3 3
-0.0038536798252979763 7 5 4 1
0.0004145297299773288 7 5 4 2
0.00014030126879824694 7 5 4 3
6.495339141788647e-05 7 5 4 4
0.00018612935438140017 7 5 5 1
-0.0025331240254234453 7 5 5 2
0.0004902911008254396 7 5 5 3
-1.4545651079671133e-05 7 5 5 4
8.328606575396198e-05 7 5 5 5
-0.0009056208674534166 7 5 6 1
-0.00013538654011423207 7 5 6 2
0.00029453857303191814 7 5 6 3
-0.0003207088610615528 7 5 6 4
3.2590923424744166e-05 7 5 6 5
-0.0003408470716589374 7 5 6 6
3.9124957524450015e-05 7 5 7 1
0.0001449490962336701 7 5 7 2
7.834011379145044e-05 7 5 7 3
-0.00048647990464508866 7 5 7 4
0.009604242437660136 7 5 7 5
0.0008065216324070919 7 6 1 1
0.00011482334265073452 7 6 2 1
0.0004852199101064612 7 6 2 2
-0.0013430894807596597 7 6 3 1
0.0001515364788220765 7 6 3 2
0.00036568821635577225 7 6 3 3
0.0012750460754601632 7 6 4 1
-0.03485378652087284 7 6 4 2
-0.012679143465387805 7 6 4 3
0.0001726683884746163 7 6 4 4
-0.015157395759899673 7 6 5 1
-0.0006419296836121333 7 6 5 2
0.0004566674164887072 7 6 5 3
-0.00013853316512616565 7 6 5 4
0.00024168295915227476 7 6 5 5
-0.0011165607296120949 7 6 6 1
-6.916425623337084e-05 7 6 6 2
-0.03551779422438865 7 6 6 3
-0.0003999823075132163 7 6 6 4
-0.002507286158397688 7 6 6 5
-0.0001489207395839707 7 6 6 6
-0.0005108201215883562 7 6 7 1
-0.0001447843792174225 7 6 7 2
-0.0006210465399013393 7 6 7 3
0.06046087059221966 7 6 7 4
-0.00022940415793268971 7 6 7 5
0.03643403151467048 7 6 7 6
0.2815801986119074 7 7 1 1
-0.0012064045783772136 7 7 2 1
0.23867047763024954 7 7 2 2
-0.0005028461384955805 7 7 3 1
-0.025229302470447315 7 7 3 2
0.3557670628661531 7 7 3 3
-0.0016247166663309657 7 7 4 1
-0.0004997038383540909 7 7 4 2
-0.0002809908070193993 7 7 4 3
0.3911200724288383 7 7 4 4
0.0002262890076938987 7 7 5 1
-0.0011052053596476564 7 7 5 2
-0.00033484336736533 7 7 5 3
0.00012769865818977735 7 7 5 4
0.3314374899076991 7 7 5 5
0.0005525466645001644 7 7 6 1
0.00030440102839612805 7 7 6 2
9.824203846635202e-05 7 7 6 3
0.00823973799895954 7 7 6 4
-3.8332511307973905e-05 7 7 6 5
0.341739876540684 7 7 6 6
0.0005419363909178524 7 7 7 1
-0.05334819369967449 7 7 7 2
0.014937364501784775 7 7 7 3
-0.000726658760470047 7 7 7 4
0.0001246380405926801 7 7 7 5
-1.0777958982294625e-05 7 7 7 6
0.3456668123402535 7 7 7 7
-0.00029536075782249003 8 1 1 1
0.01004132765990949 8 1 2 1
0.0025559550607627693 8 1 2 2
-0.003143040906565875 8 1 3 1
-0.00037052718842313603 8 1 3 2
0.001518831008134053 8 1 3 3
-7.28899461333101e-05 8 1 4 1
0.0028319789080822697 8 1 4 2
0.0005953569826574594 8 1 4 3
0.0020533133274944202 8 1 4 4
0.0016858776633973435 8 1 5 1
5.02541196994217e-05 8 1 5 2
-3.053409363987688e-05 8 1 5 3
-0.0021172531973427874 8 1 5 4
0.0013587700874510822 8 1 5 5
9.260442022210783e-05 8 1 6 1
-0.0008166080541456727 8 1 6 2
0.003021334871161364 8 1 6 3
-0.00017373274858593872 8 1 6 4
0.00014905281174925283 8 1 6 5
0.0016174652478740785 8 1 6 6
0.00804522427254795 8 1 7 1
4.0188668214965526e-05 8 1 7 2
0.0002557443538186415 8 1 7 3
-0.004849728982516269 8 1 7 4
4.5893881384426505e-05 8 1 7 5
-0.0023911511546977886 8 1 7 6
0.001457224207970519 8 1 7 7
0.009938787855408856 8 1 8 1
-0.013884316996210032 8 2 1 1
0.0028669516312321537 8 2 2 1
-0.006909665889359206 8 2 2 2
3.756420775571324e-06 8 2 3 1
0.003745945795589443 8 2 3 2
-0.03930994038544662 8 2 3 3
0.00046521769558651387 8 2 4 1
0.0004314095699414874 8 2 4 2
8.08407126341216e-05 8 2 4 3
-0.04974843979286526 8 2 4 4
0.00013444458425428992 8 2 5 1
0.000523265970471881 8 2 5 2
1.5144867646245951e-05 8 2 5 3
-0.0002766966851291256 8 2 5 4
-0.03593780021004796 8 2 5 5
-0.0006622422990388299 8 2 6 1
-0.00026875489305933775 8 2 6 2
0.00019124296255640058 8 2 6 3
0.0025807777116975926 8 2 6 4
0.0004356123438256014 8 2 6 5
-0.04104171498921211 8 2 6 6
0.0005477017139637195 8 2 7 1
0.019463791016275087 8 2 7 2
-0.0051038599774285666 8 2 7 3
-0.0002325524131869199 8 2 7 4
0.00011241327885402156 8 2 7 5
-0.00021991784401222667 8 2 7 6
-0.03079542573041196 8 2 7 7
0.00014039989536527198 8 2 8 1
0.015273856159879674 8 2 8 2
-0.008445763536305391 8 3 1 1
4.440138116242241e-05 8 3 2 1
-0.006711470093563811 8 3 2 2
0.0001791384317068811 8 3 3 1
0.00030071437298622366 8 3 3 2
-0.018647129772245908 8 3 3 3
8.139967055623827e-05 8 3 4 1
0.00011449472364943842 8 3 4 2
2.2156959778862356e-05 8 3 4 3
-0.024872798221837203 8 3 4 4
-2.6419747081380502e-05 8 3 5 1
0.00018155612166880452 8 3 5 2
0.00023586052089539996 8 3 5 3
-0.00010560532419449943 8 3 5 4
-0.014069305869633723 8 3 5 5
0.0001433086203852173 8 3 6 1
-4.520620523841616e-05 8 3 6 2
-1.3848325179047108e-06 8 3 6 3
-0.002813192252738666 8 3 6 4
-6.770556523688015e-05 8 3 6 5
-0.007578396350711239 8 3 6 6
-0.00022519956507884858 8 3 7 1
0.006209084751407897 8 3 7 2
-0.001646943928240231 8 3 7 3
-2.8798723040773973e-05 8 3 7 4
-0.0001557818757272886 8 3 7 5
7.49714352601328e-05 8 3 7 6
-0.017853917614351112 8 3 7 7
-0.00023096216899769748 8 3 8 1
0.002540984690231494 8 3 8 2
0.010990276838186154 8 3 8 3
0.0006808246213827373 8 4 1 1
0.0016188691183225495 8 4 2 1
0.0005602988950354866 8 4 2 2
-0.0021056136383059746 8 4 3 1
0.00021111703542636386 8 4 3 2
-0.00022408580575585706 8 4 3 3
0.0022449125686498073 8 4 4 1
-0.0553366013556862 8 4 4 2
-0.008988331044557004 8 4 4 3
-0.00022526945191491798 8 4 4 4
-0.024196129895484232 8 4 5 1
-0.0006258856470629751 8 4 5 2
0.0005954242847347178 8 4 5 3
0.00025880036152706653 8 4 5 4
-0.0002369270043163865 8 4 5 5
-0.0018580970125423254 8 4 6 1
0.009056253640690104 8 4 6 2
-0.04579265414201232 8 4 6 3
-0.0005203541803022289 8 4 6 4
-0.00285811021966452 8 4 6 5
-0.0006384554758494107 8 4 6 6
-0.000731934347341153 8 4 7 1
1.4228216611556986e-05 8 4 7 2
-0.0009587103675804671 8 4 7 3
0.08806061613549691 8 4 7 4
-9.628346733180345e-05 8 4 7 5
0.03107742724206085 8 4 7 6
-0.0005699487737710882 8 4 7 7
-0.003000078919040589 8 4 8 1
-0.00012525351491108656 8 4 8 2
2.7975158753628975e-05 8 4 8 3
0.062042221765091866 8 4 8 4
0.0005671685936777296 8 5 1 1
1.3116661465293701e-05 8 5 2 1
0.00023401169809270645 8 5 2 2
-9.035578085715831e-05 8 5 3 1
-8.232633382655627e-05 8 5 3 2
0.00039964274930303175 8 5 3 3
0.0009514535741384343 8 5 4 1
-0.0019261789299837696 8 5 4 2
-0.00020070769068406206 8 5 4 3
0.0009675710041681752 8 5 4 4
-0.000836685541502794 8 5 5 1
-0.002394387826488149 8 5 5 2
-0.0017097254968970333 8 5 5 3
-1.1089570547281402e-06 8 5 5 4
0.0007456604843058033 8 5 5 5
0.0011287072441243183 8 5 6 1
0.0005271228889437066 8 5 6 2
-0.0017547601334351902 8 5 6 3
-0.00020207944111731154 8 5 6 4
-0.00013493310617771498 8 5 6 5
0.0015187636470654375 8 5 6 6
4.1914797469373623e-05 8 5 7 1
-0.00039009138465518494 8 5 7 2
0.00017139462596266463 8 5 7 3
0.002775032817172378 8 5 7 4
-0.0011331567355648846 8 5 7 5
0.0012147696334287577 8 5 7 6
0.0008542304400414494 8 5 7 7
-5.4035620965819516e-05 8 5 8 1
-0.000408833959612523 8 5 8 2
-0.00014582252093594804 8 5 8 3
0.0017983956263824107 8 5 8 4
0.009863447292691056 8 5 8 5
-0.0011973622208948096 8 6 1 1
-0.0022018453567035803 8 6 2 1
-0.0010916621019605496 8 6 2 2
0.002837364581328264 8 6 3 1
-0.00024352901658438966 8 6 3 2
-0.00015888389309013368 8 6 3 3
-0.002801890845841972 8 6 4 1
0.06759889558379348 8 6 4 2
0.008829508771688095 8 6 4 3
-0.00024611534065591286 8 6 4 4
0.03369566332607684 8 6 5 1
0.0009815830997330242 8 6 5 2
-0.00092118395721015 8 6 5 3
-0.0004355561944459836 8 6 5 4
-0.00012223132543989692 8 6 5 5
0.002519518497695746 8 6 6 1
-0.010012117730674506 8 6 6 2
0.067668063565729 8 6 6 3
0.0006327025543895405 8 6 6 4
0.004534933877290813 8 6 6 5
0.000649166788738921 8 6 6 6
0.00014992260941210043 8 6 7 1
4.2911670755690516e-05 8 6 7 2
0.0012293750802328638 8 6 7 3
-0.10799221028369738 8 6 7 4
0.00044670305268963164 8 6 7 5
-0.051500999496928095 8 6 7 6
0.0002629537513791519 8 6 7 7
0.003917680619154845 8 6 8 1
0.0002503324783497627 8 6 8 2
1.4886172876451069e-05 8 6 8 3
-0.07101155565119317 8 6 8 4
-0.0025167963805942267 8 6 8 5
0.10630654216950305 8 6 8 6
0.011452014061923064 8 7 1 1
0.0008211690213023191 8 7 2 1
0.010707727079659043 8 7 2 2
-0.00016619017256497813 8 7 3 1
-0.00357383779416841 8 7 3 2
0.011613654865499388 8 7 3 3
-0.0003162766525303496 8 7 4 1
0.00026545865405806486 8 7 4 2
1.8819292582942907e-05 8 7 4 3
0.015236338362154125 8 7 4 4
0.00018485417484160346 8 7 5 1
0.0001440108470212378 8 7 5 2
-2.9986378975103547e-05 8 7 5 3
0.00011771186912485368 8 7 5 4
0.00973359354648003 8 7 5 5
-0.0002907183615094964 8 7 6 1
-8.327878713360164e-05 8 7 6 2
0.0003469409325993389 8 7 6 3
-0.003061782000666612 8 7 6 4
0.00022488397402143807 8 7 6 5
0.0007391204192657294 8 7 6 6
9.822044078792122e-05 8 7 7 1
0.0027847954324628304 8 7 7 2
0.001353871735548654 8 7 7 3
-0.0005183434672213612 8 7 7 4
8.863426306116989e-05 8 7 7 5
-0.00024615301986935566 8 7 7 6
0.011945162138518945 8 7 7 7
0.0002315127178270441 8 7 8 1
0.0006480527092831679 8 7 8 2
-0.0016708572079101014 8 7 8 3
-0.00031429792366642666 8 7 8 4
-0.00031354370785307645 8 7 8 5
0.00042979730963023485 8 7 8 6
0.00981981453687416 8 7 8 7
0.2741578778187901 8 8 1 1
-0.0012512822254930308 8 8 2 1
0.23121905552712613 8 8 2 2
-0.0003715362645222324 8 8 3 1
-0.024181256616192845 8 8 3 2
0.34959536583359424 8 8 3 3
-0.002102397430211541 8 8 4 1
-0.0009209444109663269 8 8 4 2
-0.0002301655135119072 8 8 4 3
0.3795655296739747 8 8 4 4
-2.375193331464651e-05 8 8 5 1
-0.0013575681110000553 8 8 5 2
-0.00018379406571426897 8 8 5 3
0.00043483437525309264 8 8 5 4
0.32808024566685295 8 8 5 5
0.0009549215871162161 8 8 6 1
0.0004031783345884196 8 8 6 2
-0.00024377022164203118 8 8 6 3
-0.002702873763274373 8 8 6 4
-0.00021055794231729212 8 8 6 5
0.3457323936270206 8 8 6 6
0.0008406746069542962 8 8 7 1
-0.05336887655965231 8 8 7 2
0.016438741774189355 8 8 7 3
-3.353247808938326e-05 8 8 7 4
0.00047977790682021633 8 8 7 5
0.0003122752371289017 8 8 7 6
0.32877780113817995 8 8 7 7
0.0016174604680327935 8 8 8 1
-0.03535804233728136 8 8 8 2
-0.015009210249628755 8 8 8 3
-5.84891343056068e-05 8 8 8 4
0.0007191026936048017 8 8 8 5
-0.0003129227163033027 8 8 8 6
0.008904247256270889 8 8 8 7
0.33492677956623906 8 8 8 8
0.003322045824079602 9 1 1 1
0.0015650379212833615 9 1 2 1
0.0018801038351311584 9 1 2 2
-0.0025181963839368405 9 1 3 1
-0.0003341495093737635 9 1 3 2
0.005055119523848551 9 1 3 3
0.0023628534527224956 9 1 4 1
-0.05265683383375329 9 1 4 2
-0.011194540056642876 9 1 4 3
0.005790854578680468 9 1 4 4
-0.02663194413517072 9 1 5 1
-0.0002621162190118551 9 1 5 2
0.0006877803229836741 9 1 5 3
0.00018934150545787642 9 1 5 4
0.004501183068489456 9 1 5 5
-0.0019913354919772423 9 1 6 1
0.008286567418312692 9 1 6 2
-0.05227404216578632 9 1 6 3
-0.0003863738228685812 9 1 6 4
-0.0034880105587913397 9 1 6 5
0.004659870868596764 9 1 6 6
4.54192943266093e-05 9 1 7 1
-0.001978027268820102 9 1 7 2
-0.0005906783672030858 9 1 7 3
0.08814578431112227 9 1 7 4
-0.0004009871572517329 9 1 7 5
0.0380495858150725 9 1 7 6
0.0038314834390780726 9 1 7 7
-0.003122505832044016 9 1 8 1
-0.0013576497438493739 9 1 8 2
-0.0002867732481795684 9 1 8 3
0.053620725012939054 9 1 8 4
0.002044954761689714 9 1 8 5
-0.07173634979635948 9 1 8 6
-0.0004551436349565721 9 1 8 7
0.004425450292425116 9 1 8 8
0.06928436825472671 9 1 9 1
-0.00016673886425368624 9 2 1 1
-0.0008364405025104162 9 2 2 1
-0.00031378894087543476 9 2 2 2
3.08901164524854e-05 9 2 3 1
9.276825165312522e-05 9 2 3 2
-0.0011925630795667605 9 2 3 3
-0.0031783178375571043 9 2 4 1
0.00027165445037939575 9 2 4 2
0.00016882080890541994 9 2 4 3
-0.0016406296568421035 9 2 4 4
0.0001540218073592001 9 2 5 1
-0.0010499829687745008 9 2 5 2
0.00038705201742287004 9 2 5 3
7.975487504720678e-05 9 2 5 4
-0.001263752012693357 9 2 5 5
0.0014932006862025267 9 2 6 1
2.7238532178629932e-05 9 2 6 2
0.0005200210009751419 9 2 6 3
0.0004205793392541466 9 2 6 4
-1.046641784107327e-05 9 2 6 5
-0.001147125023495704 9 2 6 6
-0.000661073643084026 9 2 7 1
0.000760520882085412 9 2 7 2
-0.00023230064553920684 9 2 7 3
-0.0010020600932160789 9 2 7 4
0.0001941212683841763 9 2 7 5
-0.00014913513817414072 9 2 7 6
-0.0008288713201615257 9 2 7 7
-0.0003250311101873311 9 2 8 1
4.8487411441463593e-05 9 2 8 2
2.9506231428570008e-05 9 2 8 3
-0.00046434700062332815 9 2 8 4
0.0003661716452715691 9 2 8 5
0.00042678751191240556 9 2 8 6
0.00013437347804607985 9 2 8 7
-0.0008201216202197182 9 2 8 8
-0.0012452203774465998 9 2 9 1
0.00726134135123404 9 2 9 2
-0.0011983730063864129 9 3 1 1
0.00011367532708209312 9 3 2 1
-0.0006813180289127153 9 3 2 2
0.00016646443951734226 9 3 3 1
0.0001679768224758107 9 3 3 2
-0.0019228500067659698 9 3 3 3
-0.0008031789667653694 9 3 4 1
-0.00039927183185810376 9 3 4 2
-8.348185562448918e-05 9 3 4 3
-0.0025058022134364947 9 3 4 4
-8.379266625506272e-05 9 3 5 1
-0.0022345162968755556 9 3 5 2
-0.0009381055625540254 9 3 5 3
0.00016846250825289339 9 3 5 4
-0.0013862976143338888 9 3 5 5
-0.0012437175962062568 9 3 6 1
0.00024760113229940577 9 3 6 2
-0.00036442986034185927 9 3 6 3
-6.498133855086964e-05 9 3 6 4
-3.129533286369225e-05 9 3 6 5
-0.000991535938265881 9 3 6 6
0.00014064716776281854 9 3 7 1
0.00067712300725137 9 3 7 2
-0.000186367915982659 9 3 7 3
0.0006112031828843792 9 3 7 4
0.0022392633439645704 9 3 7 5
0.0002482156693006413 9 3 7 6
-0.0016481575764146705 9 3 7 7
-1.832068988151141e-05 9 3 8 1
0.00024293570177169786 9 3 8 2
9.935231126084443e-05 9 3 8 3
0.0004048038339212418 9 3 8 4
0.003731536287909577 9 3 8 5
-0.000309846242973539 9 3 8 6
-0.00039659002821652563 9 3 8 7
-0.0014969621063125166 9 3 8 8
0.0004483849993657666 9 3 9 1
0.0007093405632017365 9 3 9 2
0.010869490463426317 9 3 9 3
0.00042869808584280306 9 4 1 1
-0.005798951650008034 9 4 2 1
-0.0005071193821387032 9 4 2 2
0.0006626607045591239 9 4 3 1
4.816351665453078e-05 9 4 3 2
-0.0001766933381152859 9 4 3 3
0.00038221672947844694 9 4 4 1
-0.0022984005509219083 9 4 4 2
-0.0003002060318453263 9 4 4 3
-0.00019870640350690626 9 4 4 4
-0.0010314137106888495 9 4 5 1
6.135443451608222e-05 9 4 5 2
2.436443146335632e-05 9 4 5 3
-0.0011767549475627534 9 4 5 4
-4.6255242438940787e-05 9 4 5 5
-0.00011502851334312765 9 4 6 1
0.0006103259859516603 9 4 6 2
-0.0017595198417446557 9 4 6 3
-7.086859076151534e-05 9 4 6 4
-0.0037692363526441583 9 4 6 5
-0.000269604642652765 9 4 6 6
0.0033583120802323833 9 4 7 1
-0.0001750987893510147 9 4 7 2
-2.1790272457585254e-05 9 4 7 3
0.003796477635538048 9 4 7 4
-0.0002185256683881362 9 4 7 5
0.0010376456374156838 9 4 7 6
-0.00020405635056821347 9 4 7 7
0.0015626398455841355 9 4 8 1
-5.249510986990392e-05 9 4 8 2
4.2483328295088515e-05 9 4 8 3
0.0021264017622559714 9 4 8 4
8.988306673737934e-05 9 4 8 5
-0.0027134996261846114 9 4 8 6
-0.00022713702067031895 9 4 8 7
-0.0003758967807021847 9 4 8 8
0.00233760058697664 9 4 9 1
-0.00028373193296106237 9 4 9 2
-5.6512070913055054e-05 9 4 9 3
0.011059576679954814 9 4 9 4
-0.005418019635354369 9 5 1 1
0.0001240661259241528 9 5 2 1
-0.0016025042729272169 9 5 2 2
-3.9997580159305786e-05 9 5 3 1
0.0014614635431788223 9 5 3 2
-0.0030949109433920266 9 5 3 3
0.00019678392382383459 9 5 4 1
0.0015243132886575545 9 5 4 2
0.00020069732762077665 9 5 4 3
-0.004941266212169811 9 5 4 4
0.0009350872382402135 9 5 5 1
5.116469995170266e-05 9 5 5 2
-0.00023473946996218912 9 5 5 3
-7.104245502197877e-05 9 5 5 4
-0.004493446668693895 9 5 5 5
-3.476534411506197e-05 9 5 6 1
-0.00026905070177305466 9 5 6 2
0.0015415510446150145 9 5 6 3
0.0032874184518582867 9 5 6 4
0.0001397210627535311 9 5 6 5
-0.00842502872786257 9 5 6 6
8.796908010147538e-06 9 5 7 1
0.00228563485714469 9 5 7 2
-0.0021949563241259957 9 5 7 3
-0.0024019373021222814 9 5 7 4
-0.0001416025999713339 9 5 7 5
-0.0010597073805126802 9 5 7 6
-0.0033248198812023985 9 5 7 7
0.00011850528906891714 9 5 8 1
0.0025084447221808918 9 5 8 2
-0.0021673255967275843 9 5 8 3
-0.0015890496440266414 9 5 8 4
-7.47968505275817e-05 9 5 8 5
0.0021665893635620824 9 5 8 6
0.0008383948131456013 9 5 8 7
-0.007205874361121642 9 5 8 8
-0.0019809894996983485 9 5 9 1
6.943013635174866e-05 9 5 9 2
5.5596381975501414e-05 9 5 9 3
-5.625476786714765e-05 9 5 9 4
0.00893081905232313 9 5 9 5
-0.00040815706328649077 9 6 1 1
0.0024515329311829833 9 6 2 1
-0.0005095923998936815 9 6 2 2
-0.0010730983129825509 9 6 3 1
6.381244607785291e-05 9 6 3 2
-0.0003617768427806912 9 6 3 3
-0.0002048999343925638 9 6 4 1
0.004920998785811193 9 6 4 2
0.0007597695306523869 9 6 4 3
-0.00036325597943646037 9 6 4 4
0.00232006773492138 9 6 5 1
5.646454742153989e-05 9 6 5 2
-2.6155444832115302e-05 9 6 5 3
-0.0005072328467447874 9 6 5 4
-0.00038530439822965194 9 6 5 5
0.0003068755364873612 9 6 6 1
-0.0007066004069708641 9 6 6 2
0.004892020086742661 9 6 6 3
6.92456715424896e-05 9 6 6 4
0.00220634467854519 9 6 6 5
-0.00029327786202552723 9 6 6 6
0.0003802770286919422 9 6 7 1
5.611846794413896e-05 9 6 7 2
4.756608185235768e-05 9 6 7 3
-0.007890121363583436 9 6 7 4
-1.4351132530334596e-05 9 6 7 5
-0.003761674651703023 9 6 7 6
-0.0002336998162056306 9 6 7 7
-0.002088222013967428 9 6 8 1
0.00028264435639145847 9 6 8 2
6.11764038102297e-05 9 6 8 3
-0.0048702287226171275 9 6 8 4
-0.00011350448966680643 9 6 8 5
0.00718288362347425 9 6 8 6
2.2620158058809646e-05 9 6 8 7
-0.0001429250399227941 9 6 8 8
-0.0053218586313569455 9 6 9 1
5.975796355620369e-05 9 6 9 2
-0.00021019201038496857 9 6 9 3
-0.0016704694554290581 9 6 9 4
0.0001904360852352112 9 6 9 5
0.007232765323675432 9 6 9 6
0.0006879216151257118 9 7 1 1
-0.000795484772662315 9 7 2 1
0.0005084394485165279 9 7 2 2
7.877737717747662e-05 9 7 3 1
-0.00016051706625700996 9 7 3 2
0.0009169006836696306 9 7 3 3
0.004121335298294292 9 7 4 1
-4.337764100452535e-05 9 7 4 2
3.398977134905005e-05 9 7 4 3
0.0009829965537833418 9 7 4 4
7.900996201638892e-05 9 7 5 1
-0.0003033767023005519 9 7 5 2
-0.0007140068289286521 9 7 5 3
-0.00012935908822300326 9 7 5 4
0.0009785878488244948 9 7 5 5
0.0008860894025135651 9 7 6 1
6.909500970509845e-05 9 7 6 2
6.0164058818273076e-05 9 7 6 3
-0.0001679301232053506 9 7 6 4
-0.00012233571207669977 9 7 6 5
0.00020295005811769474 9 7 6 6
-0.0003333608863313806 9 7 7 1
6.673405948145011e-05 9 7 7 2
7.762214083617876e-05 9 7 7 3
-7.977583492342536e-05 9 7 7 4
-0.0006247267426427539 9 7 7 5
-5.390955109221803e-05 9 7 7 6
0.0008951297102409722 9 7 7 7
-0.0002650507046997997 9 7 8 1
0.00014680352554737006 9 7 8 2
-0.0003101400556937753 9 7 8 3
-0.0001976191808468258 9 7 8 4
0.00306075052269351 9 7 8 5
9.050196976630053e-05 9 7 8 6
0.0001559931920029602 9 7 8 7
0.0003758289443417219 9 7 8 8
1.4095497469496625e-05 9 7 9 1
-0.0030453648244047494 9 7 9 2
0.002749778700318971 9 7 9 3
0.00045816170086355486 9 7 9 4
0.00029052071727972466 9 7 9 5
7.496048460928643e-05 9 7 9 6
0.00736076185097355 9 7 9 7
-0.00024431625055794544 9 8 1 1
-0.00043340463718255994 9 8 2 1
7.47200882819348e-06 9 8 2 2
8.492447063907368e-05 9 8 3 1
-0.0002533895678945488 9 8 3 2
-0.0006171243465688304 9 8 3 3
0.004000895517772709 9 8 4 1
0.002119141061351177 9 8 4 2
0.0004869649914202909 9 8 4 3
-0.0002516324983048705 9 8 4 4
0.0011038732746482577 9 8 5 1
0.001250474012515163 9 8 5 2
-2.149526520147203e-05 9 8 5 3
-0.00015719918738617766 9 8 5 4
-0.00027119955719764584 9 8 5 5
-0.0019191624214678538 9 8 6 1
-0.0001787662698900894 9 8 6 2
0.002182520318448718 9 8 6 3
-0.0006944677009007844 9 8 6 4
0.0002232452105977211 9 8 6 5
-0.0004344718001735294 9 8 6 6
-0.0002842462893154696 9 8 7 1
0.000323708384910329 9 8 7 2
0.00042934805101860793 9 8 7 3
-0.003614074751086002 9 8 7 4
-0.003065332507225812 9 8 7 5
-0.001746249889583731 9 8 7 6
-0.00019795614884562788 9 8 7 7
0.00011430520171005352 9 8 8 1
0.00020092180492764568 9 8 8 2
2.6554353269034485e-05 9 8 8 3
-0.0023457644207811 9 8 8 4
0.0010002010571381775 9 8 8 5
0.0032301794385032447 9 8 8 6
0.00041323172429077483 9 8 8 7
-0.0005519332156206418 9 8 8 8
-0.0023681166627424334 9 8 9 1
-0.0022856070981674952 9 8 9 2
-0.0017387139958738851 9 8 9 3
0.00022489760337115252 9 8 9 4
9.335510138211672e-05 9 8 9 5