 &FCI NORB=  12,NELEC=14,MS2=0,
  ORBSYM=1,1,1,1,1,1,1,1,1,1,1,1,
  ISYM=1,
 &END
0.2650838247620258 1 1 1 1
-0.002042950831615124 2 1 1 1
0.03377499595656065 2 1 2 1
0.2253950599472364 2 2 1 1
0.0038206390708063584 2 2 2 1
0.2078499422792146 2 2 2 2
-0.001161759803683618 4 1 1 1
0.00012322630113011248 4 1 2 1
-0.0007651775056917586 4 1 2 2
0.0060335875266581945 4 1 4 1
-0.0012431105201379934 4 2 1 1
-0.001128335438884339 4 2 2 1
-0.001044516280918264 4 2 2 2
-0.002303453295543325 4 2 4 1
0.05498575618255238 4 2 4 2
0.30343661040193487 4 4 1 1
-0.0026532386884502196 4 4 2 1
0.2515072601502102 4 4 2 2
-0.002019634305548918 4 4 4 1
-0.001209843408536589 4 4 4 2
0.4670854691317644 4 4 4 4
-0.00035925471303020697 5 1 1 1
-0.0001277218116550277 5 1 2 1
-0.00016955707801087478 5 1 2 2
-0.0009980397111433816 5 1 4 1
0.023034343422485906 5 1 4 2
3.2336374053695885e-05 5 1 4 4
0.016016816617380324 5 1 5 1
-0.0005008398041017422 5 2 1 1
0.00011129267038203648 5 2 2 1
-0.00019371678335625722 5 2 2 2
0.0014868859020881764 5 2 4 1
0.0007663647234771134 5 2 4 2
-0.0016087873881322468 5 2 4 4
0.00013302773319624251 5 2 5 1
0.0037036211353041856 5 2 5 2
-0.0002406388892923796 5 4 1 1
0.00018067437525761613 5 4 2 1
0.0007813290418441835 5 4 2 2
1.6382881050014765e-05 5 4 4 1
-0.000416087213448692 5 4 4 2
0.00020570698010206315 5 4 4 4
-0.0002912432013602578 5 4 5 1
-4.0496227067033145e-06 5 4 5 2
0.01194737868695143 5 4 5 4
0.27763313758895425 5 5 1 1
-0.0019246142190729205 5 5 2 1
0.23144430839788688 5 5 2 2
-0.0013677825846274499 5 5 4 1
-0.0008172001632130272 5 5 4 2
0.38246971290597703 5 5 4 4
7.451406698595381e-05 5 5 5 1
-0.0013799633177483356 5 5 5 2
0.0001989488368520261 5 5 5 4
0.3556998263143135 5 5 5 5
1.834009484612844e-05 6 1 1 1
-0.00010962841639739973 6 1 2 1
-0.0002686128213525713 6 1 2 2
-2.9923364497708266e-05 6 1 4 1
0.0016646607378945594 6 1 4 2
0.001136138240942543 6 1 4 4
0.0009035809868571651 6 1 5 1
-0.00010345604799331686 6 1 5 2
-1.2500100397319146e-05 6 1 5 4
0.0010650007266946556 6 1 5 5
0.003109265394774852 6 1 6 1
0.0002947041127560528 6 2 1 1
-0.0007444847348378823 6 2 2 1
6.603752229039167e-06 6 2 2 2
0.0003550410382669964 6 2 4 1
-0.006112920989020375 6 2 4 2
0.0005851673784648386 6 2 4 4
-0.004266988259471665 6 2 5 1
-1.776762071927747e-05 6 2 5 2
0.0002488043314667672 6 2 5 4
0.0004209855898194849 6 2 5 5
-0.0003208026883020276 6 2 6 1
0.005063092264305031 6 2 6 2
0.0027176097847850284 6 4 1 1
7.160106324418185e-06 6 4 2 1
0.0005757701806099993 6 4 2 2
9.099111444883066e-05 6 4 4 1
0.00048590362003500916 6 4 4 2
0.005778496930014346 6 4 4 4
0.0002252318792580832 6 4 5 1
0.0001230105315274924 6 4 5 2
3.0830654151456445e-06 6 4 5 4
0.0024501325655765134 6 4 5 5
8.651653642864115e-05 6 4 6 1
-4.9044167176028066e-05 6 4 6 2
0.012305617581659045 6 4 6 4
-3.775605467686589e-05 6 5 1 1
0.0034185427408052046 6 5 2 1
-0.0005394101853876304 6 5 2 2
-0.00012530841516582584 6 5 4 1
0.0032151572123517683 6 5 4 2
-9.841243395560526e-05 6 5 4 4
0.0016253885064151628 6 5 5 1
5.279181045106126e-05 6 5 5 2
0.00037227125092231046 6 5 5 4
-0.00010450778867610996 6 5 5 5
0.0001242938873128781 6 5 6 1
-0.0005398115240937005 6 5 6 2
1.4368931032617201e-05 6 5 6 4
0.009736807143905712 6 5 6 5
0.2811428727231359 6 6 1 1
-0.002350921883846975 6 6 2 1
0.23051558889523402 6 6 2 2
-0.0015479070064228645 6 6 4 1
-0.00039894853899841414 6 6 4 2
0.3952851590348052 6 6 4 4
0.0002516056685266848 6 6 5 1
-0.0015927363219656152 6 6 5 2
0.00016657600879128257 6 6 5 4
0.3491029454467614 6 6 5 5
0.0014501180932686786 6 6 6 1
0.0004836260642179827 6 6 6 2
0.004870781605093553 6 6 6 4
-8.159634190970126e-05 6 6 6 5
0.3823492407148108 6 6 6 6
-0.0016258159570657535 7 1 1 1
0.018036218799972064 7 1 2 1
0.003203066532491425 7 1 2 2
0.00011767294366950921 7 1 4 1
0.0003360678949996466 7 1 4 2
0.0010906723791779718 7 1 4 4
0.0004947392034480361 7 1 5 1
5.751670277058845e-05 7 1 5 2
-0.0010685088073011273 7 1 5 4
0.000680926081858069 7 1 5 5
3.928242833202979e-05 7 1 6 1
-0.0006686974094311025 7 1 6 2
-3.290067234931625e-05 7 1 6 4
-0.0022075519229912736 7 1 6 5
0.0006588191171030518 7 1 6 6
0.01809452506833626 7 1 7 1
-0.020396017109980402 7 2 1 1
0.0030311824480629764 7 2 2 1
-0.010194011935704144 7 2 2 2
0.00040550962731765596 7 2 4 1
0.00040886172071122686 7 2 4 2
-0.08114201521421452 7 2 4 4
5.680474298764144e-05 7 2 5 1
0.000689883147563021 7 2 5 2
0.00011210037147033355 7 2 5 4
-0.05459330406476177 7 2 5 5
-0.0007691380371696033 7 2 6 1
-0.00023895643779307335 7 2 6 2
-0.0018187383020255071 7 2 6 4
-1.539110291101865e-05 7 2 6 5
-0.06354117235007926 7 2 6 6
0.00041556841805090526 7 2 7 1
0.03518308634797801 7 2 7 2
0.0011960798655339705 7 4 1 1
0.00146978893661784 7 4 2 1
0.0009808850513942087 7 4 2 2
0.0036013479507698066 7 4 4 1
-0.08809701028661708 7 4 4 2
-0.0002137654966201115 7 4 4 4
-0.03687980530684342 7 4 5 1
-0.0007961797733614905 7 4 5 2
0.000558229809583371 7 4 5 4
-0.00025907245323060555 7 4 5 5
-0.002748914904554234 7 4 6 1
0.008723539487355747 7 4 6 2
-0.0007754018875181452 7 4 6 4
-0.005273275216011225 7 4 6 5
-0.0010728695331244085 7 4 6 6
-0.0007789739301156724 7 4 7 1
-2.965351874826416e-05 7 4 7 2
0.14796043561289612 7 4 7 4
0.00014503670904386065 7 5 1 1
0.00012461902353581107 7 5 2 1
0.0003057845889562423 7 5 2 2
-0.0038536798252979763 7 5 4 1
0.0004145297299773288 7 5 4 2
6.495339141788647e-05 7 5 4 4
0.00018612935438140017 7 5 5 1
-0.0025331240254234453 7 5 5 2
-1.4545651079671133e-05 7 5 5 4
8.328606575396198e-05 7 5 5 5
-0.0009056208674534166 7 5 6 1
-0.00013538654011423207 7 5 6 2
-0.0003207088610615528 7 5 6 4
3.2590923424744166e-05 7 5 6 5
-0.0003408470716589374 7 5 6 6
3.9124957524450015e-05 7 5 7 1
0.0001449490962336701 7 5 7 2
-0.00048647990464508866 7 5 7 4
0.009604242437660136 7 5 7 5
0.0008065216324070919 7 6 1 1
0.00011482334265073452 7 6 2 1
0.0004852199101064612 7 6 2 2
0.0012750460754601632 7 6 4 1
-0.03485378652087284 7 6 4 2
0.0001726683884746163 7 6 4 4
-0.015157395759899673 7 6 5 1
-0.0006419296836121333 7 6 5 2
-0.00013853316512616565 7 6 5 4
0.00024168295915227476 7 6 5 5
-0.0011165607296120949 7 6 6 1
-6.916425623337084e-05 7 6 6 2
-0.0003999823075132163 7 6 6 4
-0.002507286158397688 7 6 6 5
-0.0001489207395839707 7 6 6 6
-0.0005108201215883562 7 6 7 1
-0.0001447843792174225 7 6 7 2
0.06046087059221966 7 6 7 4
-0.00022940415793268971 7 6 7 5
0.03643403151467048 7 6 7 6
0.2815801986119074 7 7 1 1
-0.0012064045783772136 7 7 2 1
0.23867047763024954 7 7 2 2
-0.0016247166663309657 7 7 4 1
-0.0004997038383540909 7 7 4 2
0.3911200724288383 7 7 4 4
0.0002262890076938987 7 7 5 1
-0.0011052053596476564 7 7 5 2
0.00012769865818977735 7 7 5 4
0.3314374899076991 7 7 5 5
0.0005525466645001644 7 7 6 1
0.00030440102839612805 7 7 6 2
0.00823973799895954 7 7 6 4
-3.8332511307973905e-05 7 7 6 5
0.341739876540684 7 7 6 6
0.0005419363909178524 7 7 7 1
-0.05334819369967449 7 7 7 2
-0.000726658760470047 7 7 7 4
0.0001246380405926801 7 7 7 5
-1.0777958982294625e-05 7 7 7 6
0.3456668123402535 7 7 7 7
-0.00029536075782249003 8 1 1 1
0.01004132765990949 8 1 2 1
0.0025559550607627693 8 1 2 2
-7.28899461333101e-05 8 1 4 1
0.0028319789080822697 8 1 4 2
0.0020533133274944202 8 1 4 4
0.0016858776633973435 8 1 5 1
5.02541196994217e-05 8 1 5 2
-0.0021172531973427874 8 1 5 4
0.0013587700874510822 8 1 5 5
9.260442022210783e-05 8 1 6 1
-0.0008166080541456727 8 1 6 2
-0.00017373274858593872 8 1 6 4
0.00014905281174925283 8 1 6 5
0.0016174652478740785 8 1 6 6
0.00804522427254795 8 1 7 1
4.0188668214965526e-05 8 1 7 2
-0.004849728982516269 8 1 7 4
4.5893881384426505e-05 8 1 7 5
-0.0023911511546977886 8 1 7 6
0.001457224207970519 8 1 7 7
0.009938787855408856 8 1 8 1
-0.013884316996210032 8 2 1 1
0.0028669516312321537 8 2 2 1
-0.006909665889359206 8 2 2 2
0.00046521769558651387 8 2 4 1
0.0004314095699414874 8 2 4 2
-0.04974843979286526 8 2 4 4
0.00013444458425428992 8 2 5 1
0.000523265970471881 8 2 5 2
-0.0002766966851291256 8 2 5 4
-0.03593780021004796 8 2 5 5
-0.0006622422990388299 8 2 6 1
-0.00026875489305933775 8 2 6 2
0.0025807777116975926 8 2 6 4
0.0004356123438256014 8 2 6 5
-0.04104171498921211 8 2 6 6
0.0005477017139637195 8 2 7 1
0.019463791016275087 8 2 7 2
-0.0002325524131869199 8 2 7 4
0.00011241327885402156 8 2 7 5
-0.00021991784401222667 8 2 7 6
-0.03079542573041196 8 2 7 7
0.00014039989536527198 8 2 8 1
0.015273856159879674 8 2 8 2
0.0006808246213827373 8 4 1 1
0.0016188691183225495 8 4 2 1
0.0005602988950354866 8 4 2 2
0.0022449125686498073 8 4 4 1
-0.0553366013556862 8 4 4 2
-0.00022526945191491798 8 4 4 4
-0.024196129895484232 8 4 5 1
-0.0006258856470629751 8 4 5 2
0.00025880036152706653 8 4 5 4
-0.0002369270043163865 8 4 5 5
-0.0018580970125423254 8 4 6 1
0.009056253640690104 8 4 6 2
-0.0005203541803022289 8 4 6 4
-0.00285811021966452 8 4 6 5
-0.0006384554758494107 8 4 6 6
-0.000731934347341153 8 4 7 1
1.4228216611556986e-05 8 4 7 2
0.08806061613549691 8 4 7 4
-9.628346733180345e-05 8 4 7 5
0.03107742724206085 8 4 7 6
-0.0005699487737710882 8 4 7 7
-0.003000078919040589 8 4 8 1
-0.00012525351491108656 8 4 8 2
0.062042221765091866 8 4 8 4
0.0005671685936777296 8 5 1 1
1.3116661465293701e-05 8 5 2 1
0.00023401169809270645 8 5 2 2
0.0009514535741384343 8 5 4 1
-0.0019261789299837696 8 5 4 2
0.0009675710041681752 8 5 4 4
-0.000836685541502794 8 5 5 1
-0.002394387826488149 8 5 5 2
-1.1089570547281402e-06 8 5 5 4
0.0007456604843058033 8 5 5 5
0.0011287072441243183 8 5 6 1
0.0005271228889437066 8 5 6 2
-0.00020207944111731154 8 5 6 4
-0.00013493310617771498 8 5 6 5
0.0015187636470654375 8 5 6 6
4.1914797469373623e-05 8 5 7 1
-0.00039009138465518494 8 5 7 2
0.002775032817172378 8 5 7 4
-0.0011331567355648846 8 5 7 5
0.0012147696334287577 8 5 7 6
0.0008542304400414494 8 5 7 7
-5.4035620965819516e-05 8 5 8 1
-0.000408833959612523 8 5 8 2
0.0017983956263824107 8 5 8 4
0.009863447292691056 8 5 8 5
-0.0011973622208948096 8 6 1 1
-0.0022018453567035803 8 6 2 1
-0.0010916621019605496 8 6 2 2
-0.002801890845841972 8 6 4 1
0.06759889558379348 8 6 4 2
-0.00024611534065591286 8 6 4 4
0.03369566332607684 8 6 5 1
0.0009815830997330242 8 6 5 2
-0.0004355561944459836 8 6 5 4
-0.00012223132543989692 8 6 5 5
0.002519518497695746 8 6 6 1
-0.010012117730674506 8 6 6 2
0.0006327025543895405 8 6 6 4
0.004534933877290813 8 6 6 5
0.000649166788738921 8 6 6 6
0.00014992260941210043 8 6 7 1
4.2911670755690516e-05 8 6 7 2
-0.10799221028369738 8 6 7 4
0.00044670305268963164 8 6 7 5
-0.051500999496928095 8 6 7 6
0.0002629537513791519 8 6 7 7
0.003917680619154845 8 6 8 1
0.0002503324783497627 8 6 8 2
-0.07101155565119317 8 6 8 4
-0.0025167963805942267 8 6 8 5
0.10630654216950305 8 6 8 6
0.011452014061923064 8 7 1 1
0.0008211690213023191 8 7 2 1
0.010707727079659043 8 7 2 2
-0.0003162766525303496 8 7 4 1
0.00026545865405806486 8 7 4 2
0.015236338362154125 8 7 4 4
0.00018485417484160346 8 7 5 1
0.0001440108470212378 8 7 5 2
0.00011771186912485368 8 7 5 4
0.00973359354648003 8 7 5 5
-0.0002907183615094964 8 7 6 1
-8.327878713360164e-05 8 7 6 2
-0.003061782000666612 8 7 6 4
0.00022488397402143807 8 7 6 5
0.0007391204192657294 8 7 6 6
9.822044078792122e-05 8 7 7 1
0.0027847954324628304 8 7 7 2
-0.0005183434672213612 8 7 7 4
8.863426306116989e-05 8 7 7 5
-0.00024615301986935566 8 7 7 6
0.011945162138518945 8 7 7 7
0.0002315127178270441 8 7 8 1
0.0006480527092831679 8 7 8 2
-0.00031429792366642666 8 7 8 4
-0.00031354370785307645 8 7 8 5
0.00042979730963023485 8 7 8 6
0.00981981453687416 8 7 8 7
0.2741578778187901 8 8 1 1
-0.0012512822254930308 8 8 2 1
0.23121905552712613 8 8 2 2
-0.002102397430211541 8 8 4 1
-0.0009209444109663269 8 8 4 2
0.3795655296739747 8 8 4 4
-2.375193331464651e-05 8 8 5 1
-0.0013575681110000553 8 8 5 2
0.00043483437525309264 8 8 5 4
0.32808024566685295 8 8 5 5
0.0009549215871162161 8 8 6 1
0.0004031783345884196 8 8 6 2
-0.002702873763274373 8 8 6 4
-0.00021055794231729212 8 8 6 5
0.3457323936270206 8 8 6 6
0.0008406746069542962 8 8 7 1
-0.05336887655965231 8 8 7 2
-3.353247808938326e-05 8 8 7 4
0.00047977790682021633 8 8 7 5
0.0003122752371289017 8 8 7 6
0.32877780113817995 8 8 7 7
0.0016174604680327935 8 8 8 1
-0.03535804233728136 8 8 8 2
-5.84891343056068e-05 8 8 8 4
0.0007191026936048017 8 8 8 5
-0.0003129227163033027 8 8 8 6
0.008904247256270889 8 8 8 7
0.33492677956623906 8 8 8 8
0.003322045824079602 9 1 1 1
0.0015650379212833615 9 1 2 1
0.0018801038351311584 9 1 2 2
0.0023628534527224956 9 1 4 1
-0.05265683383375329 9 1 4 2
0.005790854578680468 9 1 4 4
-0.02663194413517072 9 1 5 1
-0.0002621162190118551 9 1 5 2
0.00018934150545787642 9 1 5 4
0.004501183068489456 9 1 5 5
-0.0019913354919772423 9 1 6 1
0.008286567418312692 9 1 6 2
-0.0003863738228685812 9 1 6 4
-0.0034880105587913397 9 1 6 5
0.004659870868596764 9 1 6 6
4.54192943266093e-05 9 1 7 1
-0.001978027268820102 9 1 7 2
0.08814578431112227 9 1 7 4
-0.0004009871572517329 9 1 7 5
0.0380495858150725 9 1 7 6
0.0038314834390780726 9 1 7 7
-0.003122505832044016 9 1 8 1
-0.0013576497438493739 9 1 8 2
0.053620725012939054 9 1 8 4
0.002044954761689714 9 1 8 5
-0.07173634979635948 9 1 8 6
-0.0004551436349565721 9 1 8 7
0.004425450292425116 9 1 8 8
0.06928436825472671 9 1 9 1
-0.00016673886425368624 9 2 1 1
-0.0008364405025104162 9 2 2 1
-0.00031378894087543476 9 2 2 2
-0.0031783178375571043 9 2 4 1
0.00027165445037939575 9 2 4 2
-0.0016406296568421035 9 2 4 4
0.0001540218073592001 9 2 5 1
-0.0010499829687745008 9 2 5 2
7.975487504720678e-05 9 2 5 4
-0.001263752012693357 9 2 5 5
0.0014932006862025267 9 2 6 1
2.7238532178629932e-05 9 2 6 2
0.0004205793392541466 9 2 6 4
-1.046641784107327e-05 9 2 6 5
-0.001147125023495704 9 2 6 6
-0.000661073643084026 9 2 7 1
0.000760520882085412 9 2 7 2
-0.0010020600932160789 9 2 7 4
0.0001941212683841763 9 2 7 5
-0.00014913513817414072 9 2 7 6
-0.0008288713201615257 9 2 7 7
-0.0003250311101873311 9 2 8 1
4.8487411441463593e-05 9 2 8 2
-0.00046434700062332815 9 2 8 4
0.0003661716452715691 9 2 8 5
0.00042678751191240556 9 2 8 6
0.00013437347804607985 9 2 8 7
-0.0008201216202197182 9 2 8 8
-0.0012452203774465998 9 2 9 1
0.00726134135123404 9 2 9 2
0.00042869808584280306 9 4 1 1
-0.005798951650008034 9 4 2 1
-0.0005071193821387032 9 4 2 2
0.00038221672947844694 9 4 4 1
-0.0022984005509219083 9 4 4 2
-0.00019870640350690626 9 4 4 4
-0.0010314137106888495 9 4 5 1
6.135443451608222e-05 9 4 5 2
-0.0011767549475627534 9 4 5 4
-4.6255242438940787e-05 9 4 5 5
-0.00011502851334312765 9 4 6 1
0.0006103259859516603 9 4 6 2
-7.086859076151534e-05 9 4 6 4
-0.0037692363526441583 9 4 6 5
-0.000269604642652765 9 4 6 6
0.0033583120802323833 9 4 7 1
-0.0001750987893510147 9 4 7 2
0.003796477635538048 9 4 7 4
-0.0002185256683881362 9 4 7 5
0.0010376456374156838 9 4 7 6
-0.00020405635056821347 9 4 7 7
0.0015626398455841355 9 4 8 1
-5.249510986990392e-05 9 4 8 2
0.0021264017622559714 9 4 8 4
8.988306673737934e-05 9 4 8 5
-0.0027134996261846114 9 4 8 6
-0.00022713702067031895 9 4 8 7
-0.0003758967807021847 9 4 8 8
0.00233760058697664 9 4 9 1
-0.00028373193296106237 9 4 9 2
0.011059576679954814 9 4 9 4
-0.005418019635354369 9 5 1 1
0.0001240661259241528 9 5 2 1
-0.0016025042729272169 9 5 2 2
0.00019678392382383459 9 5 4 1
0.0015243132886575545 9 5 4 2
-0.004941266212169811 9 5 4 4
0.0009350872382402135 9 5 5 1
5.116469995170266e-05 9 5 5 2
-7.104245502197877e-05 9 5 5 4
-0.004493446668693895 9 5 5 5
-3.476534411506197e-05 9 5 6 1
-0.00026905070177305466 9 5 6 2
0.0032874184518582867 9 5 6 4
0.0001397210627535311 9 5 6 5
-0.00842502872786257 9 5 6 6
8.796908010147538e-06 9 5 7 1
0.00228563485714469 9 5 7 2
-0.0024019373021222814 9 5 7 4
-0.0001416025999713339 9 5 7 5
-0.0010597073805126802 9 5 7 6
-0.0033248198812023985 9 5 7 7
0.00011850528906891714 9 5 8 1
0.0025084447221808918 9 5 8 2
-0.0015890496440266414 9 5 8 4
-7.47968505275817e-05 9 5 8 5
0.0021665893635620824 9 5 8 6
0.0008383948131456013 9 5 8 7
-0.007205874361121642 9 5 8 8
-0.0019809894996983485 9 5 9 1
6.943013635174866e-05 9 5 9 2
-5.625476786714765e-05 9 5 9 4
0.00893081905232313 9 5 9 5
-0.00040815706328649077 9 6 1 1
0.0024515329311829833 9 6 2 1
-0.0005095923998936815 9 6 2 2
-0.0002048999343925638 9 6 4 1
0.004920998785811193 9 6 4 2
-0.00036325597943646037 9 6 4 4
0.00232006773492138 9 6 5 1
5.646454742153989e-05 9 6 5 2
-0.0005072328467447874 9 6 5 4
-0.00038530439822965194 9 6 5 5
0.0003068755364873612 9 6 6 1
-0.0007066004069708641 9 6 6 2
6.92456715424896e-05 9 6 6 4
0.00220634467854519 9 6 6 5
-0.00029327786202552723 9 6 6 6
0.0003802770286919422 9 6 7 1
5.611846794413896e-05 9 6 7 2
-0.007890121363583436 9 6 7 4
-1.4351132530334596e-05 9 6 7 5
-0.003761674651703023 9 6 7 6
-0.0002336998162056306 9 6 7 7
-0.002088222013967428 9 6 8 1
0.00028264435639145847 9 6 8 2
-0.0048702287226171275 9 6 8 4
-0.00011350448966680643 9 6 8 5
0.00718288362347425 9 6 8 6
2.2620158058809646e-05 9 6 8 7
-0.0001429250399227941 9 6 8 8
-0.0053218586313569455 9 6 9 1
5.975796355620369e-05 9 6 9 2
-0.0016704694554290581 9 6 9 4
0.0001904360852352112 9 6 9 5
0.007232765323675432 9 6 9 6
0.0006879216151257118 9 7 1 1
-0.000795484772662315 9 7 2 1
0.0005084394485165279 9 7 2 2
0.004121335298294292 9 7 4 1
-4.337764100452535e-05 9 7 4 2
0.0009829965537833418 9 7 4 4
7.900996201638892e-05 9 7 5 1
-0.0003033767023005519 9 7 5 2
-0.00012935908822300326 9 7 5 4
0.0009785878488244948 9 7 5 5
0.0008860894025135651 9 7 6 1
6.909500970509845e-05 9 7 6 2
-0.0001679301232053506 9 7 6 4
-0.00012233571207669977 9 7 6 5
0.00020295005811769474 9 7 6 6
-0.0003333608863313806 9 7 7 1
6.673405948145011e-05 9 7 7 2
-7.977583492342536e-05 9 7 7 4
-0.0006247267426427539 9 7 7 5
-5.390955109221803e-05 9 7 7 6
0.0008951297102409722 9 7 7 7
-0.0002650507046997997 9 7 8 1
0.00014680352554737006 9 7 8 2
-0.0001976191808468258 9 7 8 4
0.00306075052269351 9 7 8 5
9.050196976630053e-05 9 7 8 6
0.0001559931920029602 9 7 8 7
0.0003758289443417219 9 7 8 8
1.4095497469496625e-05 9 7 9 1
-0.0030453648244047494 9 7 9 2
0.00045816170086355486 9 7 9 4
0.00029052071727972466 9 7 9 5
7.496048460928643e-05 9 7 9 6
0.00736076185097355 9 7 9 7
-0.00024431625055794544 9 8 1 1
-0.00043340463718255994 9 8 2 1
7.47200882819348e-06 9 8 2 2
0.004000895517772709 9 8 4 1
0.002119141061351177 9 8 4 2
-0.0002516324983048705 9 8 4 4
0.0011038732746482577 9 8 5 1
0.001250474012515163 9 8 5 2
-0.00015719918738617766 9 8 5 4
-0.00027119955719764584 9 8 5 5
-0.0019191624214678538 9 8 6 1
-0.0001787662698900894 9 8 6 2
-0.0006944677009007844 9 8 6 4
0.0002232452105977211 9 8 6 5
-0.0004344718001735294 9 8 6 6
-0.0002842462893154696 9 8 7 1
0.000323708384910329 9 8 7 2
-0.003614074751086002 9 8 7 4
-0.003065332507225812 9 8 7 5
-0.001746249889583731 9 8 7 6
-0.00019795614884562788 9 8 7 7
0.00011430520171005352 9 8 8 1
0.00020092180492764568 9 8 8 2
-0.0023457644207811 9 8 8 4
0.0010002010571381775 9 8 8 5
0.0032301794385032447 9 8 8 6
0.00041323172429077483 9 8 8 7
-0.0005519332156206418 9 8 8 8
-0.0023681166627424334 9 8 9 1
-0.0022856070981674952 9 8 9 2
0.00022489760337115252 9 8 9 4
9.335510138211672e-05 9 8 9 5
4.45453378098762e-05 9 8 9 6
0.0007735360302634985 9 8 9 7
0.00789355637021561 9 8 9 8
0.28175372240859714 9 9 1 1
-0.002241369449294643 9 9 2 1
0.2290487542896432 9 9 2 2
-0.000776596418082396 9 9 4 1
-0.005988509395031436 9 9 4 2
0.387433221308574 9 9 4 4
-0.002563658477560446 9 9 5 1
-0.0012833873055373905 9 9 5 2
0.00017027266640109605 9 9 5 4
0.33882736223358384 9 9 5 5
0.0006696790357891795 9 9 6 1
0.0010183094495413896 9 9 6 2
0.007427406467791962 9 9 6 4
-0.0005674979758245374 9 9 6 5
0.3598155900098285 9 9 6 6
0.0006807763362455546 9 9 7 1
-0.06073448092598359 9 9 7 2
0.008201410117210607 9 9 7 4
-0.0006623024271935235 9 9 7 5
0.004234504154837845 9 9 7 6
0.33488652459593227 9 9 7 7
0.0009193013423368914 9 9 8 1
-0.03784933931131371 9 9 8 2
0.00495753573138974 9 9 8 4
0.0013541108373266652 9 9 8 5
-0.0074994590718912195 9 9 8 6
0.003502380216819281 9 9 8 7
0.3320362521627903 9 9 8 8
0.011126766613984842 9 9 9 1
-0.0014601126900269815 9 9 9 2
7.334840747102832e-05 9 9 9 4
-0.0065715046938749685 9 9 9 5
-0.0009302112220182333 9 9 9 6
0.0004726770408688444 9 9 9 7
-0.0008819340850817604 9 9 9 8
0.36351281387282636 9 9 9 9
0.051505808001826844 10 1 1 1
-0.001026220150840301 10 1 2 1
0.024494431059981 10 1 2 2
-0.0007747536149242453 10 1 4 1
0.001283013470596904 10 1 4 2
0.11739710121163605 10 1 4 4
0.0008878471308516618 10 1 5 1
-0.0009568757916126126 10 1 5 2
-1.7999770341648355e-05 10 1 5 4
0.09285652172839726 10 1 5 5
0.001073699344566824 10 1 6 1
-1.0478533617285201e-05 10 1 6 2
0.0023457956212395306 10 1 6 4
-0.0001382697520480923 10 1 6 5
0.10668936529428177 10 1 6 6
0.0014971317990723648 10 1 7 1
-0.04078615092594915 10 1 7 2
-0.0030877616449052486 10 1 7 4
-0.0002183079791619328 10 1 7 5
-0.001147582999699639 10 1 7 6
0.08353588531171073 10 1 7 7
0.00153446452453371 10 1 8 1
-0.02562930052839928 10 1 8 2
-0.0019306064735363788 10 1 8 4
0.0007849084736092782 10 1 8 5
0.002373852425163004 10 1 8 6
-0.0032807667805448883 10 1 8 7
0.08743254686424166 10 1 8 8
0.0008777701128081591 10 1 9 1
-0.000832728883304886 10 1 9 2
-4.3628181496895485e-05 10 1 9 4
-0.0072062772442327595 10 1 9 5
-0.00023710848070039155 10 1 9 6
-7.90659713820846e-05 10 1 9 7
-0.0007965920137002591 10 1 9 8
0.10531592969298303 10 1 9 9
0.06555461243547638 10 1 10 1
-0.0024739628298339803 10 2 1 1
-0.02156549603733969 10 2 2 1
-0.004702303971511492 10 2 2 2
3.804453233152309e-05 10 2 4 1
1.29152557713476e-05 10 2 4 2
-0.004853785387623899 10 2 4 4
-0.0003767847128474527 10 2 5 1
-2.0696798572693995e-05 10 2 5 2
0.0023273107654202376 10 2 5 4
-0.004102536301374801 10 2 5 5
-2.111162378638352e-06 10 2 6 1
0.0006133063124289692 10 2 6 2
-4.487352152511516e-06 10 2 6 4
-0.0006597480782516466 10 2 6 5
-0.0038051804752738554 10 2 6 6
-0.016268884466721426 10 2 7 1
-0.0007689059910210411 10 2 7 2
0.00019146578038871246 10 2 7 4
-9.348372938269805e-05 10 2 7 5
0.0005811049680968107 10 2 7 6
-0.00453359543499311 10 2 7 7
-0.009402070598469566 10 2 8 1
-0.001311443050200598 10 2 8 2
-2.3043116286285217e-05 10 2 8 4
-5.111343534447319e-05 10 2 8 5
0.00032104880735138507 10 2 8 6
-0.0011051202835408074 10 2 8 7
-0.0041694659728185555 10 2 8 8
-0.0004083551666494155 10 2 9 1
0.0005057879105367623 10 2 9 2
-0.0022408585157540645 10 2 9 4
-3.4153200276383446e-05 10 2 9 5
-0.00042147673009791735 10 2 9 6
0.0004899961472633841 10 2 9 7
0.00026160112884249394 10 2 9 8
-0.0036491802311383052 10 2 9 9
-0.0019184826970165215 10 2 10 1
0.019594335534409795 10 2 10 2
-3.1839625251595464e-05 10 4 1 1
0.00014755616456405574 10 4 2 1
5.580424671181143e-05 10 4 2 2
0.006240549899985023 10 4 4 1
-0.0016280723098619824 10 4 4 2
-0.0002533058909527281 10 4 4 4
-0.0006690056282404219 10 4 5 1
0.0021848585222789324 10 4 5 2
8.365378337758117e-05 10 4 5 4
4.949121530457633e-05 10 4 5 5
-4.280411066558665e-05 10 4 6 1
0.00023232236285286738 10 4 6 2
-0.0002622977447784526 10 4 6 4
7.966685578259231e-05 10 4 6 5
-0.00029865212891864263 10 4 6 6
-0.0001851750126616531 10 4 7 1
0.0001344757917141743 10 4 7 2
0.002428003561947436 10 4 7 4
-0.0051139592963901645 10 4 7 5
0.0008307770011493224 10 4 7 6
-0.00010142393518469972 10 4 7 7
-0.00018148213193978324 10 4 8 1
0.0002739055487812963 10 4 8 2
0.00149612520798068 10 4 8 4
0.0006574536585787112 10 4 8 5
-0.0019628046245249472 10 4 8 6
-3.330105651053399e-05 10 4 8 7
-0.0007552976446474819 10 4 8 8
0.001605277522744391 10 4 9 1
-0.0039569751103189915 10 4 9 2
-3.731461312875719e-05 10 4 9 4
5.636066464673272e-05 10 4 9 5
-9.817071302101211e-05 10 4 9 6
0.005135459417252062 10 4 9 7
0.0050969151404463755 10 4 9 8
0.00039243209605942654 10 4 9 9
-0.00028885337923492276 10 4 10 1
0.00027959956725515073 10 4 10 2
0.008323281067221579 10 4 10 4
-0.0002982322731503 10 5 1 1
-0.0009207398427660291 10 5 2 1
-0.00037833306219296097 10 5 2 2
-0.0014162555359019102 10 5 4 1
0.034053026644131366 10 5 4 2
0.00036871564744042813 10 5 4 4
0.020852294277496977 10 5 5 1
0.0002725317853290634 10 5 5 2
-0.000288168264350358 10 5 5 4
0.0004008703070824172 10 5 5 5
0.0012977378155915637 10 5 6 1
-0.006028920078367012 10 5 6 2
0.000191575741352567 10 5 6 4
0.002294955695580258 10 5 6 5
0.0008910644950658024 10 5 6 6
0.0002302132018590895 10 5 7 1
-0.00016970796197732495 10 5 7 2
-0.054214964221170066 10 5 7 4
0.00017354829008315052 10 5 7 5
-0.02295639288513208 10 5 7 6
0.0004899706962205329 10 5 7 7
0.002107944194393742 10 5 8 1
-2.9492984219968364e-05 10 5 8 2
-0.035683739603765655 10 5 8 4
-0.0012197727230951955 10 5 8 5
0.04987452575993463 10 5 8 6
0.00018171010858120077 10 5 8 7
0.00033291346086175425 10 5 8 8
-0.03784609038497839 10 5 9 1
0.0002065300348253957 10 5 9 2
-0.001514281389837171 10 5 9 4
0.0009976002291837986 10 5 9 5
0.003440355871525753 10 5 9 6
7.806807100521335e-05 10 5 9 7
0.0016404332227951013 10 5 9 8
-0.0033697753747520057 10 5 9 9
0.0017048664926924576 10 5 10 1
1.0963996456729968e-05 10 5 10 2
-0.0009782707318556608 10 5 10 4
0.031514653340635045 10 5 10 5
-0.000900604223919491 10 6 1 1
-4.1583722999215874e-05 10 6 2 1
-0.0003843004622067414 10 6 2 2
0.00014096744684865005 10 6 4 1
0.0018913089512237182 10 6 4 2
-0.0026586005581452554 10 6 4 4
0.0009831376586324344 10 6 5 1
-0.00011680853324475518 10 6 5 2
1.5648224175619016e-05 10 6 5 4
-0.002134273612587323 10 6 5 5
0.0029284045459865003 10 6 6 1
-0.0003072304561637517 10 6 6 2
-1.642252005530272e-05 10 6 6 4
9.042086868682635e-05 10 6 6 5
-0.0026986073819678185 10 6 6 6
4.203214650193677e-06 10 6 7 1
0.0010920238113725149 10 6 7 2
-0.0030096875416821263 10 6 7 4
-0.0010578184993231478 10 6 7 5
-0.001402060822383303 10 6 7 6
-0.0017167110469663719 10 6 7 7
0.00019064141821194594 10 6 8 1
0.0006776076299316889 10 6 8 2
-0.002014711880630184 10 6 8 4
0.001334361643772325 10 6 8 5
0.0028640624265307097 10 6 8 6
6.722556009818683e-05 10 6 8 7
-0.0016682288205446616 10 6 8 8
-0.002165911882605959 10 6 9 1
0.0003819065978660259 10 6 9 2
-5.901900110400297e-05 10 6 9 4
0.00014499037957512866 10 6 9 5
9.11081176414788e-05 10 6 9 6
0.001562371935087007 10 6 9 7
-0.0027194873329941466 10 6 9 8
-0.0030070527759875096 10 6 9 9
-0.0014926200322353308 10 6 10 1
1.0362080356924233e-05 10 6 10 2
0.00016288518826768203 10 6 10 4
0.0014660280703871211 10 6 10 5
0.00431005492128068 10 6 10 6
0.0016834263442286593 10 7 1 1
-0.019800774505706845 10 7 2 1
-0.002427478582231341 10 7 2 2
-0.00018150341498737925 10 7 4 1
-0.0006093679324449794 10 7 4 2
0.0005371028427414552 10 7 4 4
-0.0005629610896154837 10 7 5 1
-6.055640448311851e-05 10 7 5 2
-0.002220498059113579 10 7 5 4
0.0003771673739040215 10 7 5 5
-6.148577326538836e-05 10 7 6 1
0.0006463745421409362 10 7 6 2
-0.00010125711579827927 10 7 6 4
-0.004001484152699074 10 7 6 5
5.14262088906608e-06 10 7 6 6
-0.008048145047386587 10 7 7 1
-0.0011152572869314078 10 7 7 2
0.0012948919913416653 10 7 7 4
-1.5007929505273654e-05 10 7 7 5
0.0007509833861984295 10 7 7 6
0.0002201383461982118 10 7 7 7
-0.007008177879134138 10 7 8 1
-0.001074192577200826 10 7 8 2
0.0002899391262192667 10 7 8 4
-0.0001517513442067472 10 7 8 5
-0.0005551838491642372 10 7 8 6
-0.00020047961279158965 10 7 8 7
-2.2575024594804366e-05 10 7 8 8
0.00025066799895860913 10 7 9 1
0.0005104754444413749 10 7 9 2
0.008051673564733892 10 7 9 4
-3.998496156804981e-05 10 7 9 5
9.380730343256227e-05 10 7 9 6
0.00035404543957576895 10 7 9 7
0.00018683083322661314 10 7 9 8
0.00026017201619927974 10 7 9 9
-0.000558179742747219 10 7 10 1
0.01063219564353308 10 7 10 2
-0.0004489845074519207 10 7 10 4
-0.000507790064394391 10 7 10 5
-0.00012867893215067521 10 7 10 6
0.01722357404931047 10 7 10 7
0.001334832213869021 10 8 1 1
-0.01081812982899885 10 8 2 1
-0.002167781745446453 10 8 2 2
-0.0003580662375744336 10 8 4 1
0.0036764607146609393 10 8 4 2
0.0011301956466546446 10 8 4 4
0.0015703759217131615 10 8 5 1
-3.6711902047937764e-05 10 8 5 2
-0.00423721936436122 10 8 5 4
0.0006111255502087168 10 8 5 5
0.00018759178368680198 10 8 6 1
4.785325023738314e-05 10 8 6 2
-0.0001667692090021504 10 8 6 4
0.001139151591789105 10 8 6 5
0.0008828106526287361 10 8 6 6
-0.007377732963479112 10 8 7 1
-0.0012084591245467495 10 8 7 2
-0.005860003920592771 10 8 7 4
0.00014864150668688768 10 8 7 5
-0.002750444442511162 10 8 7 6
0.0006523964019677651 10 8 7 7
-0.001090268465754621 10 8 8 1
-0.000630269702890515 10 8 8 2
-0.0035791696690971203 10 8 8 4
-0.00019610525459685057 10 8 8 5
0.005317093395506288 10 8 8 6
-0.00013709805996719966 10 8 8 7
0.000493012052778366 10 8 8 8
-0.004130685260600211 10 8 9 1
0.00029810254055485106 10 8 9 2
0.004035585711368739 10 8 9 4
0.00017601291383965948 10 8 9 5
-0.0025665796486246907 10 8 9 6
0.0002554604970562366 10 8 9 7
0.00025223306188163933 10 8 9 8
3.7713028055843154e-05 10 8 9 9
0.00017261564066242737 10 8 10 1
0.0054685502128344315 10 8 10 2
-0.0004594364387923983 10 8 10 4
0.002464642010095685 10 8 10 5
0.00033790760598772384 10 8 10 6
0.007102467160910264 10 8 10 7
0.010456873017052334 10 8 10 8
0.0008735141817081886 10 9 1 1
0.001152895425246535 10 9 2 1
0.0007314465374777905 10 9 2 2
0.0030745494267199877 10 9 4 1
-0.07319960219566686 10 9 4 2
-0.0019454828740390845 10 9 4 4
-0.03664598994253403 10 9 5 1
-0.0010412766482440407 10 9 5 2
8.388063659583925e-05 10 9 5 4
-0.0013920637590806913 10 9 5 5
-0.002645160991850868 10 9 6 1
0.008038521719726676 10 9 6 2
-0.0009000406913989064 10 9 6 4
-0.004944174932262406 10 9 6 5
-0.002641773939319344 10 9 6 6
-0.0007631470924774665 10 9 7 1
0.0008195703548702707 10 9 7 2
0.12027156218062049 10 9 7 4
-0.0005462667782420255 10 9 7 5
0.05730633684219814 10 9 7 6
-0.0016614441618532571 10 9 7 7
-0.004787010802096992 10 9 8 1
0.0002638213946469291 10 9 8 2
0.07385386706634382 10 9 8 4
0.0027788189237922464 10 9 8 5
-0.10557431747314125 10 9 8 6
-0.0002678664663907953 10 9 8 7
-0.0011392569898699488 10 9 8 8
0.08513223425721583 10 9 9 1
-0.000587267877527007 10 9 9 2
0.0031769166870105796 10 9 9 4
-0.002427509392585218 10 9 9 5
-0.007940499639909398 10 9 9 6