 &FCI NORB=  12,NELEC=14,MS2=0,
  ORBSYM=1,1,1,1,1,1,1,1,1,1,1,1,
  ISYM=1,
 &END
0.004855850517404003 1 1 0 0
0.026514904158526323 2 2 0 0
0.0820109811315913 3 3 0 0
0.08958797916168801 4 4 0 0
0.6089090070321018 5 5 0 0
0.6184065188422252 6 6 0 0
0.12636097767754004 7 7 0 0
0.62894611370506 8 8 0 0
0.1344098711660685 9 9 0 0
0.6363096365309542 10 10 0 0
0.15506769880899748 11 11 0 0
0.6645457819306525 12 12 0 0
-1456.2414621499388 0 0 0 0
